<?xml version="1.0" encoding="UTF-8"?>

<!-- generated on 2024-10-09 23:08:05 by Eclipse SUMO GUI Version v1_20_0+2132-5dddbf6757a
<sumoConfiguration xmlns:xsi="http://www.w3.org/2001/XMLSchema-instance" xsi:noNamespaceSchemaLocation="http://sumo.dlr.de/xsd/sumoConfiguration.xsd">

    <input>
        <net-file value="test.net.xml"/>
        <route-files value="50to50.trips.xml"/>
        <additional-files value="map.poly.xml,additional.add.vtype.xml"/>
    </input>

    <output>
        <emission-output value="emissions.xml"/>
        <summary-output value="summary.xml"/>
        <tripinfo-output value="value.xml"/>
        <stop-output value="stops.xml"/>
    </output>

    <time>
        <begin value="0"/>
        <end value="1000"/>
        <step-length value="0.1"/>
    </time>

    <processing>
        <collision.action value="warn"/>
    </processing>

    <report>
        <message-log value="results/sumo-0.log"/>
        <no-step-log value="true"/>
    </report>

    <traci_server>
        <remote-port value="43237"/>
    </traci_server>

    <random_number>
        <seed value="23423"/>
    </random_number>

    <gui_only>
        <quit-on-end value="true"/>
        <start value="true"/>
    </gui_only>

</sumoConfiguration>
-->

<emission-export xmlns:xsi="http://www.w3.org/2001/XMLSchema-instance" xsi:noNamespaceSchemaLocation="http://sumo.dlr.de/xsd/emission_file.xsd">
    <timestep time="0.00">
        <vehicle id="0" eclass="HBEFA3/PC_G_EU4" CO2="2624.72" CO="164.78" HC="0.81" NOx="1.20" PMx="0.07" fuel="837.22" electricity="0.00" noise="55.94" route="!0!var#1" type="vTypeCar" waiting="0.00" lane="23623765#0_0" pos="4.60" speed="0.00" angle="208.49" x="2841.86" y="1766.38"/>
    </timestep>
    <timestep time="0.10">
        <vehicle id="0" eclass="HBEFA3/PC_G_EU4" CO2="2757.20" CO="163.09" HC="0.81" NOx="1.26" PMx="0.07" fuel="879.47" electricity="0.00" noise="67.09" route="!0!var#1" type="vTypeCar" waiting="0.00" lane="23623765#0_0" pos="4.63" speed="0.25" angle="208.49" x="2841.84" y="1766.35"/>
    </timestep>
    <timestep time="0.20">
        <vehicle id="0" eclass="HBEFA3/PC_G_EU4" CO2="2867.47" CO="161.22" HC="0.80" NOx="1.31" PMx="0.07" fuel="914.64" electricity="0.00" noise="66.62" route="!0!var#1" type="vTypeCar" waiting="0.00" lane="23623765#0_0" pos="4.67" speed="0.49" angle="208.49" x="2841.82" y="1766.31"/>
    </timestep>
    <timestep time="0.30">
        <vehicle id="0" eclass="HBEFA3/PC_G_EU4" CO2="3039.26" CO="160.30" HC="0.80" NOx="1.38" PMx="0.07" fuel="969.43" electricity="0.00" noise="67.65" route="!0!var#1" type="vTypeCar" waiting="0.00" lane="23623765#0_0" pos="4.75" speed="0.75" angle="208.49" x="2841.79" y="1766.25"/>
    </timestep>
    <timestep time="0.40">
        <vehicle id="0" eclass="HBEFA3/PC_G_EU4" CO2="3160.80" CO="158.53" HC="0.80" NOx="1.43" PMx="0.07" fuel="1008.20" electricity="0.00" noise="67.41" route="!0!var#1" type="vTypeCar" waiting="0.00" lane="23623765#0_0" pos="4.85" speed="1.00" angle="208.49" x="2841.74" y="1766.16"/>
    </timestep>
    <timestep time="0.50">
        <vehicle id="0" eclass="HBEFA3/PC_G_EU4" CO2="3271.02" CO="156.70" HC="0.79" NOx="1.47" PMx="0.08" fuel="1043.35" electricity="0.00" noise="67.19" route="!0!var#1" type="vTypeCar" waiting="0.00" lane="23623765#0_0" pos="4.97" speed="1.25" angle="208.49" x="2841.68" y="1766.05"/>
    </timestep>
    <timestep time="0.60">
        <vehicle id="0" eclass="HBEFA3/PC_G_EU4" CO2="3421.00" CO="155.66" HC="0.79" NOx="1.54" PMx="0.08" fuel="1091.18" electricity="0.00" noise="67.48" route="!0!var#1" type="vTypeCar" waiting="0.00" lane="23623765#0_0" pos="5.12" speed="1.50" angle="208.49" x="2841.61" y="1765.92"/>
    </timestep>
    <timestep time="0.70">
        <vehicle id="0" eclass="HBEFA3/PC_G_EU4" CO2="3420.66" CO="152.03" HC="0.77" NOx="1.53" PMx="0.08" fuel="1091.08" electricity="0.00" noise="66.38" route="!0!var#1" type="vTypeCar" waiting="0.00" lane="23623765#0_0" pos="5.30" speed="1.72" angle="208.49" x="2841.52" y="1765.77"/>
    </timestep>
    <timestep time="0.80">
        <vehicle id="0" eclass="HBEFA3/PC_G_EU4" CO2="3467.32" CO="149.57" HC="0.76" NOx="1.55" PMx="0.08" fuel="1105.96" electricity="0.00" noise="65.98" route="!0!var#1" type="vTypeCar" waiting="0.00" lane="23623765#0_0" pos="5.49" speed="1.93" angle="208.49" x="2841.43" y="1765.60"/>
    </timestep>
    <timestep time="0.90">
        <vehicle id="0" eclass="HBEFA3/PC_G_EU4" CO2="3568.89" CO="148.27" HC="0.76" NOx="1.59" PMx="0.08" fuel="1138.35" electricity="0.00" noise="66.11" route="!0!var#1" type="vTypeCar" waiting="0.00" lane="23623765#0_0" pos="5.70" speed="2.14" angle="208.49" x="2841.33" y="1765.41"/>
    </timestep>
    <timestep time="1.00">
        <vehicle id="0" eclass="HBEFA3/PC_G_EU4" CO2="3526.80" CO="144.38" HC="0.74" NOx="1.57" PMx="0.08" fuel="1124.92" electricity="0.00" noise="65.25" route="!0!var#1" type="vTypeCar" waiting="0.00" lane="23623765#0_0" pos="5.94" speed="2.33" angle="208.49" x="2841.22" y="1765.20"/>
        <vehicle id="1" eclass="HBEFA3/PC_G_EU4" CO2="2624.72" CO="164.78" HC="0.81" NOx="1.20" PMx="0.07" fuel="837.22" electricity="0.00" noise="55.94" route="!1!var#1" type="vTypeCar" waiting="0.00" lane="-59825146_0" pos="4.60" speed="0.00" angle="262.31" x="3165.28" y="1463.38"/>
    </timestep>
    <timestep time="1.10">
        <vehicle id="0" eclass="HBEFA3/PC_G_EU4" CO2="3648.05" CO="143.79" HC="0.74" NOx="1.62" PMx="0.08" fuel="1163.60" electricity="0.00" noise="65.60" route="!0!var#1" type="vTypeCar" waiting="0.00" lane="23623765#0_0" pos="6.19" speed="2.53" angle="208.49" x="2841.10" y="1764.98"/>
        <vehicle id="1" eclass="HBEFA3/PC_G_EU4" CO2="2763.04" CO="163.13" HC="0.81" NOx="1.26" PMx="0.07" fuel="881.34" electricity="0.00" noise="67.31" route="!1!var#1" type="vTypeCar" waiting="0.00" lane="-59825146_0" pos="4.63" speed="0.26" angle="262.31" x="3165.26" y="1463.38"/>
    </timestep>
    <timestep time="1.20">
        <vehicle id="0" eclass="HBEFA3/PC_G_EU4" CO2="3588.83" CO="139.81" HC="0.72" NOx="1.58" PMx="0.08" fuel="1144.71" electricity="0.00" noise="64.84" route="!0!var#1" type="vTypeCar" waiting="0.00" lane="23623765#0_0" pos="6.46" speed="2.71" angle="208.49" x="2840.97" y="1764.74"/>
        <vehicle id="1" eclass="HBEFA3/PC_G_EU4" CO2="2906.44" CO="161.59" HC="0.80" NOx="1.32" PMx="0.07" fuel="927.07" electricity="0.00" noise="67.50" route="!1!var#1" type="vTypeCar" waiting="0.00" lane="-59825146_0" pos="4.68" speed="0.51" angle="262.31" x="3165.20" y="1463.37"/>
    </timestep>
    <timestep time="1.30">
        <vehicle id="0" eclass="HBEFA3/PC_G_EU4" CO2="4094.75" CO="146.67" HC="0.76" NOx="1.82" PMx="0.09" fuel="1306.07" electricity="0.00" noise="67.32" route="!0!var#1" type="vTypeCar" waiting="0.00" lane="23623765#0_0" pos="6.75" speed="2.94" angle="208.49" x="2840.83" y="1764.48"/>
        <vehicle id="1" eclass="HBEFA3/PC_G_EU4" CO2="3033.97" CO="159.90" HC="0.80" NOx="1.38" PMx="0.07" fuel="967.75" electricity="0.00" noise="67.33" route="!1!var#1" type="vTypeCar" waiting="0.00" lane="-59825146_0" pos="4.75" speed="0.77" angle="262.31" x="3165.13" y="1463.36"/>
    </timestep>
    <timestep time="1.40">
        <vehicle id="0" eclass="HBEFA3/PC_G_EU4" CO2="3910.05" CO="139.88" HC="0.73" NOx="1.72" PMx="0.08" fuel="1247.16" electricity="0.00" noise="65.86" route="!0!var#1" type="vTypeCar" waiting="0.00" lane="23623765#0_0" pos="7.07" speed="3.14" angle="208.49" x="2840.68" y="1764.21"/>
        <vehicle id="1" eclass="HBEFA3/PC_G_EU4" CO2="3155.90" CO="158.21" HC="0.79" NOx="1.43" PMx="0.07" fuel="1006.63" electricity="0.00" noise="67.22" route="!1!var#1" type="vTypeCar" waiting="0.00" lane="-59825146_0" pos="4.86" speed="1.01" angle="262.31" x="3165.03" y="1463.35"/>
    </timestep>
    <timestep time="1.50">
        <vehicle id="0" eclass="HBEFA3/PC_G_EU4" CO2="4283.67" CO="144.15" HC="0.76" NOx="1.89" PMx="0.09" fuel="1366.32" electricity="0.00" noise="67.32" route="!0!var#1" type="vTypeCar" waiting="0.00" lane="23623765#0_0" pos="7.40" speed="3.37" angle="208.49" x="2840.52" y="1763.91"/>
        <vehicle id="1" eclass="HBEFA3/PC_G_EU4" CO2="3285.13" CO="156.75" HC="0.79" NOx="1.48" PMx="0.08" fuel="1047.85" electricity="0.00" noise="67.28" route="!1!var#1" type="vTypeCar" waiting="0.00" lane="-59825146_0" pos="4.98" speed="1.26" angle="262.31" x="3164.90" y="1463.33"/>
    </timestep>
    <timestep time="1.60">
        <vehicle id="0" eclass="HBEFA3/PC_G_EU4" CO2="4519.40" CO="145.45" HC="0.77" NOx="2.00" PMx="0.10" fuel="1441.51" electricity="0.00" noise="67.93" route="!0!var#1" type="vTypeCar" waiting="0.00" lane="23623765#0_0" pos="7.77" speed="3.61" angle="208.49" x="2840.35" y="1763.59"/>
        <vehicle id="1" eclass="HBEFA3/PC_G_EU4" CO2="3273.56" CO="152.97" HC="0.77" NOx="1.47" PMx="0.07" fuel="1044.16" electricity="0.00" noise="65.92" route="!1!var#1" type="vTypeCar" waiting="0.00" lane="-59825146_0" pos="5.13" speed="1.48" angle="262.31" x="3164.76" y="1463.31"/>
    </timestep>
    <timestep time="1.70">
        <vehicle id="0" eclass="HBEFA3/PC_G_EU4" CO2="4036.84" CO="132.87" HC="0.70" NOx="1.77" PMx="0.08" fuel="1287.60" electricity="0.00" noise="65.43" route="!0!var#1" type="vTypeCar" waiting="0.00" lane="23623765#0_0" pos="8.14" speed="3.79" angle="208.49" x="2840.17" y="1763.26"/>
        <vehicle id="1" eclass="HBEFA3/PC_G_EU4" CO2="3194.99" CO="148.45" HC="0.75" NOx="1.43" PMx="0.07" fuel="1019.10" electricity="0.00" noise="64.37" route="!1!var#1" type="vTypeCar" waiting="0.00" lane="-59825146_0" pos="5.29" speed="1.65" angle="262.31" x="3164.59" y="1463.29"/>
    </timestep>
    <timestep time="1.80">
        <vehicle id="0" eclass="HBEFA3/PC_G_EU4" CO2="4726.51" CO="143.65" HC="0.77" NOx="2.09" PMx="0.10" fuel="1507.56" electricity="0.00" noise="68.00" route="!0!var#1" type="vTypeCar" waiting="0.00" lane="23623765#0_0" pos="8.55" speed="4.03" angle="208.49" x="2839.97" y="1762.91"/>
        <vehicle id="1" eclass="HBEFA3/PC_G_EU4" CO2="3361.08" CO="148.68" HC="0.76" NOx="1.50" PMx="0.08" fuel="1072.07" electricity="0.00" noise="65.31" route="!1!var#1" type="vTypeCar" waiting="0.00" lane="-59825146_0" pos="5.48" speed="1.85" angle="262.31" x="3164.41" y="1463.27"/>
    </timestep>
    <timestep time="1.90">
        <vehicle id="0" eclass="HBEFA3/PC_G_EU4" CO2="4356.14" CO="133.25" HC="0.71" NOx="1.91" PMx="0.09" fuel="1389.43" electricity="0.00" noise="66.18" route="!0!var#1" type="vTypeCar" waiting="0.00" lane="23623765#0_0" pos="8.97" speed="4.22" angle="208.49" x="2839.77" y="1762.54"/>
        <vehicle id="1" eclass="HBEFA3/PC_G_EU4" CO2="3236.87" CO="143.54" HC="0.73" NOx="1.44" PMx="0.07" fuel="1032.46" electricity="0.00" noise="63.78" route="!1!var#1" type="vTypeCar" waiting="0.00" lane="-59825146_0" pos="5.68" speed="2.01" angle="262.31" x="3164.21" y="1463.24"/>
    </timestep>
    <timestep time="2.00">
        <vehicle id="0" eclass="HBEFA3/PC_G_EU4" CO2="4401.75" CO="131.51" HC="0.70" NOx="1.92" PMx="0.09" fuel="1403.98" electricity="0.00" noise="66.12" route="!0!var#1" type="vTypeCar" waiting="0.00" lane="23623765#0_0" pos="9.41" speed="4.41" angle="208.49" x="2839.56" y="1762.15"/>
        <vehicle id="1" eclass="HBEFA3/PC_G_EU4" CO2="3649.73" CO="148.55" HC="0.76" NOx="1.63" PMx="0.08" fuel="1164.13" electricity="0.00" noise="66.45" route="!1!var#1" type="vTypeCar" waiting="0.00" lane="-59825146_0" pos="5.90" speed="2.23" angle="262.31" x="3163.99" y="1463.21"/>
        <vehicle id="2" eclass="HBEFA3/PC_G_EU4" CO2="2624.72" CO="164.78" HC="0.81" NOx="1.20" PMx="0.07" fuel="837.22" electricity="0.00" noise="55.94" route="!2!var#1" type="vTypeAutomatedCar" waiting="0.00" lane="244354946_0" pos="4.60" speed="0.00" angle="226.00" x="2828.92" y="1681.88"/>
    </timestep>
    <timestep time="2.10">
        <vehicle id="0" eclass="HBEFA3/PC_G_EU4" CO2="4411.39" CO="129.13" HC="0.69" NOx="1.92" PMx="0.09" fuel="1407.05" electricity="0.00" noise="65.94" route="!0!var#1" type="vTypeCar" waiting="0.00" lane="23623765#0_0" pos="9.87" speed="4.60" angle="208.49" x="2839.34" y="1761.75"/>
        <vehicle id="1" eclass="HBEFA3/PC_G_EU4" CO2="3798.96" CO="148.07" HC="0.76" NOx="1.69" PMx="0.08" fuel="1211.73" electricity="0.00" noise="66.82" route="!1!var#1" type="vTypeCar" waiting="0.00" lane="-59825146_0" pos="6.15" speed="2.46" angle="262.31" x="3163.75" y="1463.18"/>
        <vehicle id="2" eclass="HBEFA3/PC_G_EU4" CO2="2767.73" CO="163.15" HC="0.81" NOx="1.26" PMx="0.07" fuel="882.83" electricity="0.00" noise="67.48" route="!2!var#1" type="vTypeAutomatedCar" waiting="0.00" lane="244354946_0" pos="4.63" speed="0.26" angle="226.00" x="2828.90" y="1681.87"/>
    </timestep>
    <timestep time="2.20">
        <vehicle id="0" eclass="HBEFA3/PC_G_EU4" CO2="4864.49" CO="135.52" HC="0.73" NOx="2.13" PMx="0.10" fuel="1551.57" electricity="0.00" noise="67.28" route="!0!var#1" type="vTypeCar" waiting="0.00" lane="23623765#0_0" pos="10.35" speed="4.81" angle="208.49" x="2839.11" y="1761.32"/>
        <vehicle id="1" eclass="HBEFA3/PC_G_EU4" CO2="3824.65" CO="145.27" HC="0.75" NOx="1.70" PMx="0.08" fuel="1219.92" electricity="0.00" noise="66.40" route="!1!var#1" type="vTypeCar" waiting="0.00" lane="-59825146_0" pos="6.42" speed="2.67" angle="262.31" x="3163.48" y="1463.14"/>
        <vehicle id="2" eclass="HBEFA3/PC_G_EU4" CO2="2911.80" CO="161.61" HC="0.80" NOx="1.33" PMx="0.07" fuel="928.78" electricity="0.00" noise="67.57" route="!2!var#1" type="vTypeAutomatedCar" waiting="0.00" lane="244354946_0" pos="4.68" speed="0.52" angle="226.00" x="2828.86" y="1681.83"/>
    </timestep>
    <timestep time="2.30">
        <vehicle id="0" eclass="HBEFA3/PC_G_EU4" CO2="3931.13" CO="114.45" HC="0.61" NOx="1.69" PMx="0.08" fuel="1253.87" electricity="0.00" noise="63.99" route="!0!var#1" type="vTypeCar" waiting="0.00" lane="23623765#0_0" pos="10.85" speed="4.95" angle="208.49" x="2838.88" y="1760.89"/>
        <vehicle id="1" eclass="HBEFA3/PC_G_EU4" CO2="3863.60" CO="142.91" HC="0.74" NOx="1.71" PMx="0.08" fuel="1232.34" electricity="0.00" noise="66.14" route="!1!var#1" type="vTypeCar" waiting="0.00" lane="-59825146_0" pos="6.70" speed="2.88" angle="262.31" x="3163.20" y="1463.10"/>
        <vehicle id="2" eclass="HBEFA3/PC_G_EU4" CO2="3056.93" CO="160.14" HC="0.80" NOx="1.39" PMx="0.07" fuel="975.07" electricity="0.00" noise="67.67" route="!2!var#1" type="vTypeAutomatedCar" waiting="0.00" lane="244354946_0" pos="4.76" speed="0.78" angle="226.00" x="2828.81" y="1681.78"/>
    </timestep>
    <timestep time="2.40">
        <vehicle id="0" eclass="HBEFA3/PC_G_EU4" CO2="4651.89" CO="126.79" HC="0.69" NOx="2.02" PMx="0.09" fuel="1483.76" electricity="0.00" noise="66.21" route="!0!var#1" type="vTypeCar" waiting="0.00" lane="23623765#0_0" pos="11.36" speed="5.13" angle="208.49" x="2838.63" y="1760.44"/>
        <vehicle id="1" eclass="HBEFA3/PC_G_EU4" CO2="3687.72" CO="136.64" HC="0.71" NOx="1.62" PMx="0.08" fuel="1176.25" electricity="0.00" noise="64.81" route="!1!var#1" type="vTypeCar" waiting="0.00" lane="-59825146_0" pos="7.01" speed="3.05" angle="262.31" x="3162.89" y="1463.06"/>
        <vehicle id="2" eclass="HBEFA3/PC_G_EU4" CO2="3203.12" CO="158.75" HC="0.80" NOx="1.45" PMx="0.08" fuel="1021.69" electricity="0.00" noise="67.77" route="!2!var#1" type="vTypeAutomatedCar" waiting="0.00" lane="244354946_0" pos="4.86" speed="1.04" angle="226.00" x="2828.73" y="1681.70"/>
    </timestep>
    <timestep time="2.50">
        <vehicle id="0" eclass="HBEFA3/PC_G_EU4" CO2="5524.09" CO="141.55" HC="0.78" NOx="2.43" PMx="0.12" fuel="1761.94" electricity="0.00" noise="68.69" route="!0!var#1" type="vTypeCar" waiting="0.00" lane="23623765#0_0" pos="11.90" speed="5.37" angle="208.49" x="2838.38" y="1759.96"/>
        <vehicle id="1" eclass="HBEFA3/PC_G_EU4" CO2="3786.61" CO="135.99" HC="0.71" NOx="1.66" PMx="0.08" fuel="1207.79" electricity="0.00" noise="65.05" route="!1!var#1" type="vTypeCar" waiting="0.00" lane="-59825146_0" pos="7.33" speed="3.23" angle="262.31" x="3162.57" y="1463.02"/>
        <vehicle id="2" eclass="HBEFA3/PC_G_EU4" CO2="3350.37" CO="157.44" HC="0.80" NOx="1.51" PMx="0.08" fuel="1068.66" electricity="0.00" noise="67.87" route="!2!var#1" type="vTypeAutomatedCar" waiting="0.00" lane="244354946_0" pos="4.99" speed="1.30" angle="226.00" x="2828.64" y="1681.61"/>
    </timestep>
    <timestep time="2.60">
        <vehicle id="0" eclass="HBEFA3/PC_G_EU4" CO2="4685.93" CO="121.99" HC="0.67" NOx="2.03" PMx="0.09" fuel="1494.61" electricity="0.00" noise="65.95" route="!0!var#1" type="vTypeCar" waiting="0.00" lane="23623765#0_0" pos="12.45" speed="5.55" angle="208.54" x="2838.11" y="1759.48"/>
        <vehicle id="1" eclass="HBEFA3/PC_G_EU4" CO2="3713.53" CO="132.06" HC="0.69" NOx="1.63" PMx="0.08" fuel="1184.48" electricity="0.00" noise="64.45" route="!1!var#1" type="vTypeCar" waiting="0.00" lane="-59825146_0" pos="7.67" speed="3.39" angle="262.31" x="3162.24" y="1462.97"/>
        <vehicle id="2" eclass="HBEFA3/PC_G_EU4" CO2="3498.68" CO="156.21" HC="0.79" NOx="1.57" PMx="0.08" fuel="1115.96" electricity="0.00" noise="67.97" route="!2!var#1" type="vTypeAutomatedCar" waiting="0.00" lane="244354946_0" pos="5.15" speed="1.56" angle="226.00" x="2828.53" y="1681.51"/>
    </timestep>
    <timestep time="2.70">
        <vehicle id="0" eclass="HBEFA3/PC_G_EU4" CO2="4208.60" CO="110.35" HC="0.60" NOx="1.80" PMx="0.08" fuel="1342.37" electricity="0.00" noise="64.47" route="!0!var#1" type="vTypeCar" waiting="0.00" lane="23623765#0_0" pos="13.02" speed="5.69" angle="209.34" x="2837.78" y="1759.01"/>
        <vehicle id="1" eclass="HBEFA3/PC_G_EU4" CO2="4690.86" CO="148.41" HC="0.79" NOx="2.08" PMx="0.10" fuel="1496.19" electricity="0.00" noise="68.64" route="!1!var#1" type="vTypeCar" waiting="0.00" lane="-59825146_0" pos="8.03" speed="3.65" angle="262.31" x="3161.88" y="1462.93"/>
        <vehicle id="2" eclass="HBEFA3/PC_G_EU4" CO2="3648.05" CO="155.06" HC="0.79" NOx="1.64" PMx="0.08" fuel="1163.60" electricity="0.00" noise="68.07" route="!2!var#1" type="vTypeAutomatedCar" waiting="0.00" lane="244354946_0" pos="5.33" speed="1.82" angle="226.00" x="2828.40" y="1681.38"/>
    </timestep>
    <timestep time="2.80">
        <vehicle id="0" eclass="HBEFA3/PC_G_EU4" CO2="5659.29" CO="137.29" HC="0.76" NOx="2.48" PMx="0.12" fuel="1805.06" electricity="0.00" noise="68.41" route="!0!var#1" type="vTypeCar" waiting="0.00" lane="23623765#0_0" pos="13.61" speed="5.92" angle="210.17" x="2837.45" y="1758.53"/>
        <vehicle id="1" eclass="HBEFA3/PC_G_EU4" CO2="4430.27" CO="139.88" HC="0.74" NOx="1.95" PMx="0.09" fuel="1413.08" electricity="0.00" noise="67.03" route="!1!var#1" type="vTypeCar" waiting="0.00" lane="-59825146_0" pos="8.42" speed="3.86" angle="262.31" x="3161.49" y="1462.87"/>
        <vehicle id="2" eclass="HBEFA3/PC_G_EU4" CO2="3798.49" CO="153.99" HC="0.79" NOx="1.70" PMx="0.09" fuel="1211.58" electricity="0.00" noise="68.18" route="!2!var#1" type="vTypeAutomatedCar" waiting="0.00" lane="244354946_0" pos="5.54" speed="2.08" angle="226.00" x="2828.25" y="1681.23"/>
    </timestep>
    <timestep time="2.90">
        <vehicle id="0" eclass="HBEFA3/PC_G_EU4" CO2="5748.60" CO="136.27" HC="0.76" NOx="2.51" PMx="0.12" fuel="1833.55" electricity="0.00" noise="68.41" route="!0!var#1" type="vTypeCar" waiting="0.00" lane="23623765#0_0" pos="14.23" speed="6.14" angle="211.04" x="2837.09" y="1758.02"/>
        <vehicle id="1" eclass="HBEFA3/PC_G_EU4" CO2="3744.56" CO="123.68" HC="0.65" NOx="1.62" PMx="0.08" fuel="1194.37" electricity="0.00" noise="63.94" route="!1!var#1" type="vTypeCar" waiting="0.00" lane="-59825146_0" pos="8.82" speed="4.01" angle="262.31" x="3161.10" y="1462.82"/>
        <vehicle id="2" eclass="HBEFA3/PC_G_EU4" CO2="3949.99" CO="152.99" HC="0.79" NOx="1.77" PMx="0.09" fuel="1259.90" electricity="0.00" noise="68.28" route="!2!var#1" type="vTypeAutomatedCar" waiting="0.00" lane="244354946_0" pos="5.77" speed="2.34" angle="226.00" x="2828.08" y="1681.07"/>
    </timestep>
    <timestep time="3.00">
        <vehicle id="0" eclass="HBEFA3/PC_G_EU4" CO2="4650.79" CO="111.74" HC="0.62" NOx="1.99" PMx="0.09" fuel="1483.40" electricity="0.00" noise="65.39" route="!0!var#1" type="vTypeCar" waiting="0.00" lane="23623765#0_0" pos="14.86" speed="6.30" angle="211.93" x="2836.73" y="1757.50"/>
        <vehicle id="1" eclass="HBEFA3/PC_G_EU4" CO2="5068.50" CO="147.29" HC="0.79" NOx="2.24" PMx="0.11" fuel="1616.64" electricity="0.00" noise="68.92" route="!1!var#1" type="vTypeCar" waiting="0.00" lane="-59825146_0" pos="9.25" speed="4.27" angle="262.31" x="3160.67" y="1462.76"/>
        <vehicle id="2" eclass="HBEFA3/PC_G_EU4" CO2="4102.54" CO="152.07" HC="0.79" NOx="1.83" PMx="0.09" fuel="1308.56" electricity="0.00" noise="68.38" route="!2!var#1" type="vTypeAutomatedCar" waiting="0.00" lane="244354946_0" pos="6.03" speed="2.60" angle="226.00" x="2827.89" y="1680.89"/>
    </timestep>
    <timestep time="3.10">
        <vehicle id="0" eclass="HBEFA3/PC_G_EU4" CO2="6153.38" CO="139.75" HC="0.78" NOx="2.69" PMx="0.13" fuel="1962.65" electricity="0.00" noise="69.06" route="!0!var#1" type="vTypeCar" waiting="0.00" lane="23623765#0_0" pos="15.51" speed="6.54" angle="212.85" x="2836.36" y="1756.97"/>
        <vehicle id="1" eclass="HBEFA3/PC_G_EU4" CO2="4441.97" CO="131.69" HC="0.70" NOx="1.94" PMx="0.09" fuel="1416.81" electricity="0.00" noise="66.21" route="!1!var#1" type="vTypeCar" waiting="0.00" lane="-59825146_0" pos="9.69" speed="4.46" angle="262.31" x="3160.23" y="1462.70"/>
        <vehicle id="2" eclass="HBEFA3/PC_G_EU4" CO2="4256.16" CO="151.23" HC="0.79" NOx="1.90" PMx="0.09" fuel="1357.55" electricity="0.00" noise="68.49" route="!2!var#1" type="vTypeAutomatedCar" waiting="0.00" lane="244354946_0" pos="6.32" speed="2.86" angle="226.00" x="2827.69" y="1680.69"/>
    </timestep>
    <timestep time="3.20">
        <vehicle id="0" eclass="HBEFA3/PC_G_EU4" CO2="5398.21" CO="121.93" HC="0.68" NOx="2.33" PMx="0.11" fuel="1721.79" electricity="0.00" noise="67.02" route="!0!var#1" type="vTypeCar" waiting="0.00" lane="23623765#0_0" pos="16.18" speed="6.72" angle="213.80" x="2835.98" y="1756.42"/>
        <vehicle id="1" eclass="HBEFA3/PC_G_EU4" CO2="4676.70" CO="133.68" HC="0.72" NOx="2.05" PMx="0.10" fuel="1491.67" electricity="0.00" noise="66.81" route="!1!var#1" type="vTypeCar" waiting="0.00" lane="-59825146_0" pos="10.16" speed="4.66" angle="262.31" x="3159.77" y="1462.64"/>
        <vehicle id="2" eclass="HBEFA3/PC_G_EU4" CO2="4410.85" CO="150.47" HC="0.79" NOx="1.96" PMx="0.10" fuel="1406.89" electricity="0.00" noise="68.59" route="!2!var#1" type="vTypeAutomatedCar" waiting="0.00" lane="244354946_0" pos="6.63" speed="3.12" angle="226.00" x="2827.46" y="1680.48"/>
    </timestep>
    <timestep time="3.30">
        <vehicle id="0" eclass="HBEFA3/PC_G_EU4" CO2="4506.20" CO="101.95" HC="0.57" NOx="1.91" PMx="0.08" fuel="1437.28" electricity="0.00" noise="64.83" route="!0!var#1" type="vTypeCar" waiting="0.00" lane="23623765#0_0" pos="16.87" speed="6.86" angle="214.77" x="2835.59" y="1755.85"/>
        <vehicle id="1" eclass="HBEFA3/PC_G_EU4" CO2="4931.64" CO="135.97" HC="0.74" NOx="2.16" PMx="0.10" fuel="1572.98" electricity="0.00" noise="67.43" route="!1!var#1" type="vTypeCar" waiting="0.00" lane="-59825146_0" pos="10.65" speed="4.88" angle="262.31" x="3159.29" y="1462.58"/>
        <vehicle id="2" eclass="HBEFA3/PC_G_EU4" CO2="4566.59" CO="149.79" HC="0.79" NOx="2.03" PMx="0.10" fuel="1456.56" electricity="0.00" noise="68.70" route="!2!var#1" type="vTypeAutomatedCar" waiting="0.00" lane="244354946_0" pos="6.97" speed="3.38" angle="226.00" x="2827.22" y="1680.24"/>
    </timestep>
    <timestep time="3.40">
        <vehicle id="0" eclass="HBEFA3/PC_G_EU4" CO2="6191.89" CO="134.03" HC="0.76" NOx="2.70" PMx="0.13" fuel="1974.93" electricity="0.00" noise="68.64" route="!0!var#1" type="vTypeCar" waiting="0.00" lane="23623765#0_0" pos="17.58" speed="7.08" angle="214.83" x="2835.18" y="1755.27"/>
        <vehicle id="1" eclass="HBEFA3/PC_G_EU4" CO2="3908.41" CO="113.10" HC="0.61" NOx="1.67" PMx="0.08" fuel="1246.63" electricity="0.00" noise="63.88" route="!1!var#1" type="vTypeCar" waiting="0.00" lane="-59825146_0" pos="11.15" speed="5.01" angle="262.31" x="3158.79" y="1462.51"/>
        <vehicle id="2" eclass="HBEFA3/PC_G_EU4" CO2="4723.39" CO="149.18" HC="0.79" NOx="2.10" PMx="0.10" fuel="1506.57" electricity="0.00" noise="68.81" route="!2!var#1" type="vTypeAutomatedCar" waiting="0.00" lane="244354946_0" pos="7.33" speed="3.64" angle="226.00" x="2826.96" y="1679.99"/>
    </timestep>
    <timestep time="3.50">
        <vehicle id="0" eclass="HBEFA3/PC_G_EU4" CO2="6539.60" CO="138.47" HC="0.79" NOx="2.85" PMx="0.14" fuel="2085.83" electricity="0.00" noise="69.23" route="!0!var#1" type="vTypeCar" waiting="0.00" lane="23623765#0_0" pos="18.31" speed="7.31" angle="214.83" x="2834.76" y="1754.67"/>
        <vehicle id="1" eclass="HBEFA3/PC_G_EU4" CO2="4929.74" CO="131.40" HC="0.71" NOx="2.15" PMx="0.10" fuel="1572.38" electricity="0.00" noise="67.01" route="!1!var#1" type="vTypeCar" waiting="0.00" lane="-59825146_0" pos="11.67" speed="5.22" angle="262.31" x="3158.27" y="1462.44"/>
        <vehicle id="2" eclass="HBEFA3/PC_G_EU4" CO2="4881.26" CO="148.65" HC="0.79" NOx="2.16" PMx="0.11" fuel="1556.92" electricity="0.00" noise="68.91" route="!2!var#1" type="vTypeAutomatedCar" waiting="0.00" lane="244354946_0" pos="7.72" speed="3.90" angle="226.00" x="2826.68" y="1679.72"/>
    </timestep>
    <timestep time="3.60">
        <vehicle id="0" eclass="HBEFA3/PC_G_EU4" CO2="6697.54" CO="139.03" HC="0.79" NOx="2.92" PMx="0.14" fuel="2136.20" electricity="0.00" noise="69.38" route="!0!var#1" type="vTypeCar" waiting="0.00" lane="23623765#0_0" pos="19.06" speed="7.55" angle="214.83" x="2834.33" y="1754.05"/>
        <vehicle id="1" eclass="HBEFA3/PC_G_EU4" CO2="4472.84" CO="119.80" HC="0.65" NOx="1.93" PMx="0.09" fuel="1426.65" electricity="0.00" noise="65.44" route="!1!var#1" type="vTypeCar" waiting="0.00" lane="-59825146_0" pos="12.21" speed="5.38" angle="262.31" x="3157.74" y="1462.37"/>
        <vehicle id="2" eclass="HBEFA3/PC_G_EU4" CO2="5040.18" CO="148.21" HC="0.79" NOx="2.23" PMx="0.11" fuel="1607.61" electricity="0.00" noise="69.02" route="!2!var#1" type="vTypeAutomatedCar" waiting="0.00" lane="244354946_0" pos="8.14" speed="4.16" angle="226.00" x="2826.38" y="1679.43"/>
    </timestep>
    <timestep time="3.70">
        <vehicle id="0" eclass="HBEFA3/PC_G_EU4" CO2="5032.35" CO="103.09" HC="0.59" NOx="2.13" PMx="0.10" fuel="1605.09" electricity="0.00" noise="65.76" route="!0!var#1" type="vTypeCar" waiting="0.00" lane="23623765#0_0" pos="19.83" speed="7.69" angle="214.83" x="2833.89" y="1753.42"/>
        <vehicle id="1" eclass="HBEFA3/PC_G_EU4" CO2="4229.42" CO="112.90" HC="0.61" NOx="1.81" PMx="0.08" fuel="1349.01" electricity="0.00" noise="64.61" route="!1!var#1" type="vTypeCar" waiting="0.00" lane="-59825146_0" pos="12.76" speed="5.53" angle="262.31" x="3157.19" y="1462.29"/>
        <vehicle id="2" eclass="HBEFA3/PC_G_EU4" CO2="5200.17" CO="147.84" HC="0.80" NOx="2.30" PMx="0.11" fuel="1658.63" electricity="0.00" noise="69.13" route="!2!var#1" type="vTypeAutomatedCar" waiting="0.00" lane="244354946_0" pos="8.58" speed="4.42" angle="226.00" x="2826.06" y="1679.12"/>
    </timestep>
    <timestep time="3.80">
        <vehicle id="0" eclass="HBEFA3/PC_G_EU4" CO2="3341.88" CO="67.59" HC="0.38" NOx="1.33" PMx="0.05" fuel="1065.93" electricity="0.00" noise="62.41" route="!0!var#1" type="vTypeCar" waiting="0.00" lane="23623765#0_0" pos="20.61" speed="7.76" angle="214.83" x="2833.45" y="1752.78"/>
        <vehicle id="1" eclass="HBEFA3/PC_G_EU4" CO2="5277.29" CO="131.75" HC="0.72" NOx="2.30" PMx="0.11" fuel="1683.22" electricity="0.00" noise="67.52" route="!1!var#1" type="vTypeCar" waiting="0.00" lane="-59825146_0" pos="13.34" speed="5.74" angle="262.31" x="3156.62" y="1462.22"/>
        <vehicle id="2" eclass="HBEFA3/PC_G_EU4" CO2="5361.22" CO="147.55" HC="0.80" NOx="2.37" PMx="0.11" fuel="1710.00" electricity="0.00" noise="69.24" route="!2!var#1" type="vTypeAutomatedCar" waiting="0.00" lane="244354946_0" pos="9.05" speed="4.68" angle="226.00" x="2825.72" y="1678.80"/>
    </timestep>
    <timestep time="3.90">
        <vehicle id="0" eclass="HBEFA3/PC_G_EU4" CO2="1930.19" CO="38.62" HC="0.22" NOx="0.67" PMx="0.01" fuel="615.67" electricity="0.00" noise="59.89" route="!0!var#1" type="vTypeCar" waiting="0.00" lane="23623765#0_0" pos="21.38" speed="7.75" angle="214.83" x="2833.01" y="1752.15"/>
        <vehicle id="1" eclass="HBEFA3/PC_G_EU4" CO2="4762.39" CO="118.96" HC="0.65" NOx="2.05" PMx="0.09" fuel="1519.00" electricity="0.00" noise="65.91" route="!1!var#1" type="vTypeCar" waiting="0.00" lane="-59825146_0" pos="13.93" speed="5.91" angle="262.31" x="3156.04" y="1462.14"/>
        <vehicle id="2" eclass="HBEFA3/PC_G_EU4" CO2="5523.33" CO="147.33" HC="0.80" NOx="2.44" PMx="0.12" fuel="1761.70" electricity="0.00" noise="69.35" route="!2!var#1" type="vTypeAutomatedCar" waiting="0.00" lane="244354946_0" pos="9.54" speed="4.94" angle="226.00" x="2825.37" y="1678.45"/>
    </timestep>
    <timestep time="4.00">
        <vehicle id="0" eclass="HBEFA3/PC_G_EU4" CO2="2238.71" CO="44.89" HC="0.25" NOx="0.81" PMx="0.02" fuel="714.07" electricity="0.00" noise="60.42" route="!0!var#1" type="vTypeCar" waiting="0.00" lane="23623765#0_0" pos="22.16" speed="7.75" angle="214.83" x="2832.57" y="1751.51"/>
        <vehicle id="1" eclass="HBEFA3/PC_G_EU4" CO2="6207.06" CO="145.49" HC="0.81" NOx="2.73" PMx="0.13" fuel="1979.77" electricity="0.00" noise="69.63" route="!1!var#1" type="vTypeCar" waiting="0.00" lane="-59825146_0" pos="14.54" speed="6.16" angle="262.31" x="3155.43" y="1462.05"/>