<?xml version="1.0" encoding="UTF-8"?>

<!-- generated on 2024-11-11 12:10:57 by Eclipse SUMO GUI Version v1_21_0+0546-c8b591674a3
<sumoConfiguration xmlns:xsi="http://www.w3.org/2001/XMLSchema-instance" xsi:noNamespaceSchemaLocation="http://sumo.dlr.de/xsd/sumoConfiguration.xsd">

    <input>
        <net-file value="test.net.xml"/>
        <route-files value="50to50.trips.xml"/>
        <additional-files value="map.poly.xml,additional.add.vtype.xml"/>
    </input>

    <output>
        <emission-output value="emissions.xml"/>
        <summary-output value="summary.xml"/>
        <tripinfo-output value="value.xml"/>
        <stop-output value="stops.xml"/>
    </output>

    <time>
        <begin value="0"/>
        <end value="1000"/>
        <step-length value="0.1"/>
    </time>

    <processing>
        <collision.action value="warn"/>
    </processing>

    <report>
        <message-log value="results/sumo-0.log"/>
        <no-step-log value="true"/>
    </report>

    <traci_server>
        <remote-port value="48983"/>
    </traci_server>

    <random_number>
        <seed value="23423"/>
    </random_number>

    <gui_only>
        <quit-on-end value="true"/>
        <start value="true"/>
    </gui_only>

</sumoConfiguration>
-->

<emission-export xmlns:xsi="http://www.w3.org/2001/XMLSchema-instance" xsi:noNamespaceSchemaLocation="http://sumo.dlr.de/xsd/emission_file.xsd">
    <timestep time="0.00">
        <vehicle id="0" eclass="HBEFA3/PC_G_EU4" CO2="2624.72" CO="164.78" HC="0.81" NOx="1.20" PMx="0.07" fuel="837.22" electricity="0.00" noise="55.94" route="!0!var#1" type="vTypeCar" waiting="0.00" lane="23623765#0_0" pos="4.60" speed="0.00" angle="208.49" x="2841.86" y="1766.38"/>
    </timestep>
    <timestep time="0.10">
        <vehicle id="0" eclass="HBEFA3/PC_G_EU4" CO2="2757.20" CO="163.09" HC="0.81" NOx="1.26" PMx="0.07" fuel="879.47" electricity="0.00" noise="67.09" route="!0!var#1" type="vTypeCar" waiting="0.00" lane="23623765#0_0" pos="4.63" speed="0.25" angle="208.49" x="2841.84" y="1766.35"/>
    </timestep>
    <timestep time="0.20">
        <vehicle id="0" eclass="HBEFA3/PC_G_EU4" CO2="2867.47" CO="161.22" HC="0.80" NOx="1.31" PMx="0.07" fuel="914.64" electricity="0.00" noise="66.62" route="!0!var#1" type="vTypeCar" waiting="0.00" lane="23623765#0_0" pos="4.67" speed="0.49" angle="208.49" x="2841.82" y="1766.31"/>
    </timestep>
    <timestep time="0.30">
        <vehicle id="0" eclass="HBEFA3/PC_G_EU4" CO2="3039.26" CO="160.30" HC="0.80" NOx="1.38" PMx="0.07" fuel="969.43" electricity="0.00" noise="67.65" route="!0!var#1" type="vTypeCar" waiting="0.00" lane="23623765#0_0" pos="4.75" speed="0.75" angle="208.49" x="2841.79" y="1766.25"/>
    </timestep>
    <timestep time="0.40">
        <vehicle id="0" eclass="HBEFA3/PC_G_EU4" CO2="3160.80" CO="158.53" HC="0.80" NOx="1.43" PMx="0.07" fuel="1008.20" electricity="0.00" noise="67.41" route="!0!var#1" type="vTypeCar" waiting="0.00" lane="23623765#0_0" pos="4.85" speed="1.00" angle="208.49" x="2841.74" y="1766.16"/>
    </timestep>
    <timestep time="0.50">
        <vehicle id="0" eclass="HBEFA3/PC_G_EU4" CO2="3271.02" CO="156.70" HC="0.79" NOx="1.47" PMx="0.08" fuel="1043.35" electricity="0.00" noise="67.19" route="!0!var#1" type="vTypeCar" waiting="0.00" lane="23623765#0_0" pos="4.97" speed="1.25" angle="208.49" x="2841.68" y="1766.05"/>
    </timestep>
    <timestep time="0.60">
        <vehicle id="0" eclass="HBEFA3/PC_G_EU4" CO2="3421.00" CO="155.66" HC="0.79" NOx="1.54" PMx="0.08" fuel="1091.18" electricity="0.00" noise="67.48" route="!0!var#1" type="vTypeCar" waiting="0.00" lane="23623765#0_0" pos="5.12" speed="1.50" angle="208.49" x="2841.61" y="1765.92"/>
    </timestep>
    <timestep time="0.70">
        <vehicle id="0" eclass="HBEFA3/PC_G_EU4" CO2="3420.66" CO="152.03" HC="0.77" NOx="1.53" PMx="0.08" fuel="1091.08" electricity="0.00" noise="66.38" route="!0!var#1" type="vTypeCar" waiting="0.00" lane="23623765#0_0" pos="5.30" speed="1.72" angle="208.49" x="2841.52" y="1765.77"/>
    </timestep>
    <timestep time="0.80">
        <vehicle id="0" eclass="HBEFA3/PC_G_EU4" CO2="3467.32" CO="149.57" HC="0.76" NOx="1.55" PMx="0.08" fuel="1105.96" electricity="0.00" noise="65.98" route="!0!var#1" type="vTypeCar" waiting="0.00" lane="23623765#0_0" pos="5.49" speed="1.93" angle="208.49" x="2841.43" y="1765.60"/>
    </timestep>
    <timestep time="0.90">
        <vehicle id="0" eclass="HBEFA3/PC_G_EU4" CO2="3568.89" CO="148.27" HC="0.76" NOx="1.59" PMx="0.08" fuel="1138.35" electricity="0.00" noise="66.11" route="!0!var#1" type="vTypeCar" waiting="0.00" lane="23623765#0_0" pos="5.70" speed="2.14" angle="208.49" x="2841.33" y="1765.41"/>
    </timestep>
    <timestep time="1.00">
        <vehicle id="0" eclass="HBEFA3/PC_G_EU4" CO2="3526.80" CO="144.38" HC="0.74" NOx="1.57" PMx="0.08" fuel="1124.92" electricity="0.00" noise="65.25" route="!0!var#1" type="vTypeCar" waiting="0.00" lane="23623765#0_0" pos="5.94" speed="2.33" angle="208.49" x="2841.22" y="1765.20"/>
        <vehicle id="1" eclass="HBEFA3/PC_G_EU4" CO2="2624.72" CO="164.78" HC="0.81" NOx="1.20" PMx="0.07" fuel="837.22" electricity="0.00" noise="55.94" route="!1!var#1" type="vTypeCar" waiting="0.00" lane="-59825146_0" pos="4.60" speed="0.00" angle="262.31" x="3165.28" y="1463.38"/>
    </timestep>
    <timestep time="1.10">
        <vehicle id="0" eclass="HBEFA3/PC_G_EU4" CO2="3648.05" CO="143.79" HC="0.74" NOx="1.62" PMx="0.08" fuel="1163.60" electricity="0.00" noise="65.60" route="!0!var#1" type="vTypeCar" waiting="0.00" lane="23623765#0_0" pos="6.19" speed="2.53" angle="208.49" x="2841.10" y="1764.98"/>
        <vehicle id="1" eclass="HBEFA3/PC_G_EU4" CO2="2763.04" CO="163.13" HC="0.81" NOx="1.26" PMx="0.07" fuel="881.34" electricity="0.00" noise="67.31" route="!1!var#1" type="vTypeCar" waiting="0.00" lane="-59825146_0" pos="4.63" speed="0.26" angle="262.31" x="3165.26" y="1463.38"/>
    </timestep>
    <timestep time="1.20">
        <vehicle id="0" eclass="HBEFA3/PC_G_EU4" CO2="3588.83" CO="139.81" HC="0.72" NOx="1.58" PMx="0.08" fuel="1144.71" electricity="0.00" noise="64.84" route="!0!var#1" type="vTypeCar" waiting="0.00" lane="23623765#0_0" pos="6.46" speed="2.71" angle="208.49" x="2840.97" y="1764.74"/>
        <vehicle id="1" eclass="HBEFA3/PC_G_EU4" CO2="2906.44" CO="161.59" HC="0.80" NOx="1.32" PMx="0.07" fuel="927.07" electricity="0.00" noise="67.50" route="!1!var#1" type="vTypeCar" waiting="0.00" lane="-59825146_0" pos="4.68" speed="0.51" angle="262.31" x="3165.20" y="1463.37"/>
    </timestep>
    <timestep time="1.30">
        <vehicle id="0" eclass="HBEFA3/PC_G_EU4" CO2="4094.75" CO="146.67" HC="0.76" NOx="1.82" PMx="0.09" fuel="1306.07" electricity="0.00" noise="67.32" route="!0!var#1" type="vTypeCar" waiting="0.00" lane="23623765#0_0" pos="6.75" speed="2.94" angle="208.49" x="2840.83" y="1764.48"/>
        <vehicle id="1" eclass="HBEFA3/PC_G_EU4" CO2="3033.97" CO="159.90" HC="0.80" NOx="1.38" PMx="0.07" fuel="967.75" electricity="0.00" noise="67.33" route="!1!var#1" type="vTypeCar" waiting="0.00" lane="-59825146_0" pos="4.75" speed="0.77" angle="262.31" x="3165.13" y="1463.36"/>
    </timestep>
    <timestep time="1.40">
        <vehicle id="0" eclass="HBEFA3/PC_G_EU4" CO2="3910.05" CO="139.88" HC="0.73" NOx="1.72" PMx="0.08" fuel="1247.16" electricity="0.00" noise="65.86" route="!0!var#1" type="vTypeCar" waiting="0.00" lane="23623765#0_0" pos="7.07" speed="3.14" angle="208.49" x="2840.68" y="1764.21"/>
        <vehicle id="1" eclass="HBEFA3/PC_G_EU4" CO2="3155.90" CO="158.21" HC="0.79" NOx="1.43" PMx="0.07" fuel="1006.63" electricity="0.00" noise="67.22" route="!1!var#1" type="vTypeCar" waiting="0.00" lane="-59825146_0" pos="4.86" speed="1.01" angle="262.31" x="3165.03" y="1463.35"/>
    </timestep>
    <timestep time="1.50">
        <vehicle id="0" eclass="HBEFA3/PC_G_EU4" CO2="4283.67" CO="144.15" HC="0.76" NOx="1.89" PMx="0.09" fuel="1366.32" electricity="0.00" noise="67.32" route="!0!var#1" type="vTypeCar" waiting="0.00" lane="23623765#0_0" pos="7.40" speed="3.37" angle="208.49" x="2840.52" y="1763.91"/>
        <vehicle id="1" eclass="HBEFA3/PC_G_EU4" CO2="3285.13" CO="156.75" HC="0.79" NOx="1.48" PMx="0.08" fuel="1047.85" electricity="0.00" noise="67.28" route="!1!var#1" type="vTypeCar" waiting="0.00" lane="-59825146_0" pos="4.98" speed="1.26" angle="262.31" x="3164.90" y="1463.33"/>
    </timestep>
    <timestep time="1.60">
        <vehicle id="0" eclass="HBEFA3/PC_G_EU4" CO2="4519.40" CO="145.45" HC="0.77" NOx="2.00" PMx="0.10" fuel="1441.51" electricity="0.00" noise="67.93" route="!0!var#1" type="vTypeCar" waiting="0.00" lane="23623765#0_0" pos="7.77" speed="3.61" angle="208.49" x="2840.35" y="1763.59"/>
        <vehicle id="1" eclass="HBEFA3/PC_G_EU4" CO2="3273.56" CO="152.97" HC="0.77" NOx="1.47" PMx="0.07" fuel="1044.16" electricity="0.00" noise="65.92" route="!1!var#1" type="vTypeCar" waiting="0.00" lane="-59825146_0" pos="5.13" speed="1.48" angle="262.31" x="3164.76" y="1463.31"/>
    </timestep>
    <timestep time="1.70">
        <vehicle id="0" eclass="HBEFA3/PC_G_EU4" CO2="4036.84" CO="132.87" HC="0.70" NOx="1.77" PMx="0.08" fuel="1287.60" electricity="0.00" noise="65.43" route="!0!var#1" type="vTypeCar" waiting="0.00" lane="23623765#0_0" pos="8.14" speed="3.79" angle="208.49" x="2840.17" y="1763.26"/>
        <vehicle id="1" eclass="HBEFA3/PC_G_EU4" CO2="3194.99" CO="148.45" HC="0.75" NOx="1.43" PMx="0.07" fuel="1019.10" electricity="0.00" noise="64.37" route="!1!var#1" type="vTypeCar" waiting="0.00" lane="-59825146_0" pos="5.29" speed="1.65" angle="262.31" x="3164.59" y="1463.29"/>
    </timestep>
    <timestep time="1.80">
        <vehicle id="0" eclass="HBEFA3/PC_G_EU4" CO2="4726.51" CO="143.65" HC="0.77" NOx="2.09" PMx="0.10" fuel="1507.56" electricity="0.00" noise="68.00" route="!0!var#1" type="vTypeCar" waiting="0.00" lane="23623765#0_0" pos="8.55" speed="4.03" angle="208.49" x="2839.97" y="1762.91"/>
        <vehicle id="1" eclass="HBEFA3/PC_G_EU4" CO2="3361.08" CO="148.68" HC="0.76" NOx="1.50" PMx="0.08" fuel="1072.07" electricity="0.00" noise="65.31" route="!1!var#1" type="vTypeCar" waiting="0.00" lane="-59825146_0" pos="5.48" speed="1.85" angle="262.31" x="3164.41" y="1463.27"/>
    </timestep>
    <timestep time="1.90">
        <vehicle id="0" eclass="HBEFA3/PC_G_EU4" CO2="4356.14" CO="133.25" HC="0.71" NOx="1.91" PMx="0.09" fuel="1389.43" electricity="0.00" noise="66.18" route="!0!var#1" type="vTypeCar" waiting="0.00" lane="23623765#0_0" pos="8.97" speed="4.22" angle="208.49" x="2839.77" y="1762.54"/>
        <vehicle id="1" eclass="HBEFA3/PC_G_EU4" CO2="3236.87" CO="143.54" HC="0.73" NOx="1.44" PMx="0.07" fuel="1032.46" electricity="0.00" noise="63.78" route="!1!var#1" type="vTypeCar" waiting="0.00" lane="-59825146_0" pos="5.68" speed="2.01" angle="262.31" x="3164.21" y="1463.24"/>
    </timestep>
    <timestep time="2.00">
        <vehicle id="0" eclass="HBEFA3/PC_G_EU4" CO2="4401.75" CO="131.51" HC="0.70" NOx="1.92" PMx="0.09" fuel="1403.98" electricity="0.00" noise="66.12" route="!0!var#1" type="vTypeCar" waiting="0.00" lane="23623765#0_0" pos="9.41" speed="4.41" angle="208.49" x="2839.56" y="1762.15"/>
        <vehicle id="1" eclass="HBEFA3/PC_G_EU4" CO2="3649.73" CO="148.55" HC="0.76" NOx="1.63" PMx="0.08" fuel="1164.13" electricity="0.00" noise="66.45" route="!1!var#1" type="vTypeCar" waiting="0.00" lane="-59825146_0" pos="5.90" speed="2.23" angle="262.31" x="3163.99" y="1463.21"/>
        <vehicle id="2" eclass="HBEFA3/PC_G_EU4" CO2="2624.72" CO="164.78" HC="0.81" NOx="1.20" PMx="0.07" fuel="837.22" electricity="0.00" noise="55.94" route="!2!var#1" type="vTypeAutomatedCar" waiting="0.00" lane="244354946_0" pos="4.60" speed="0.00" angle="226.00" x="2828.92" y="1681.88"/>
    </timestep>
    <timestep time="2.10">
        <vehicle id="0" eclass="HBEFA3/PC_G_EU4" CO2="4411.39" CO="129.13" HC="0.69" NOx="1.92" PMx="0.09" fuel="1407.05" electricity="0.00" noise="65.94" route="!0!var#1" type="vTypeCar" waiting="0.00" lane="23623765#0_0" pos="9.87" speed="4.60" angle="208.49" x="2839.34" y="1761.75"/>
        <vehicle id="1" eclass="HBEFA3/PC_G_EU4" CO2="3798.96" CO="148.07" HC="0.76" NOx="1.69" PMx="0.08" fuel="1211.73" electricity="0.00" noise="66.82" route="!1!var#1" type="vTypeCar" waiting="0.00" lane="-59825146_0" pos="6.15" speed="2.46" angle="262.31" x="3163.75" y="1463.18"/>
        <vehicle id="2" eclass="HBEFA3/PC_G_EU4" CO2="2767.73" CO="163.15" HC="0.81" NOx="1.26" PMx="0.07" fuel="882.83" electricity="0.00" noise="67.48" route="!2!var#1" type="vTypeAutomatedCar" waiting="0.00" lane="244354946_0" pos="4.63" speed="0.26" angle="226.00" x="2828.90" y="1681.87"/>
    </timestep>
    <timestep time="2.20">
        <vehicle id="0" eclass="HBEFA3/PC_G_EU4" CO2="4864.49" CO="135.52" HC="0.73" NOx="2.13" PMx="0.10" fuel="1551.57" electricity="0.00" noise="67.28" route="!0!var#1" type="vTypeCar" waiting="0.00" lane="23623765#0_0" pos="10.35" speed="4.81" angle="208.49" x="2839.11" y="1761.32"/>
        <vehicle id="1" eclass="HBEFA3/PC_G_EU4" CO2="3824.65" CO="145.27" HC="0.75" NOx="1.70" PMx="0.08" fuel="1219.92" electricity="0.00" noise="66.40" route="!1!var#1" type="vTypeCar" waiting="0.00" lane="-59825146_0" pos="6.42" speed="2.67" angle="262.31" x="3163.48" y="1463.14"/>
        <vehicle id="2" eclass="HBEFA3/PC_G_EU4" CO2="2911.80" CO="161.61" HC="0.80" NOx="1.33" PMx="0.07" fuel="928.78" electricity="0.00" noise="67.57" route="!2!var#1" type="vTypeAutomatedCar" waiting="0.00" lane="244354946_0" pos="4.68" speed="0.52" angle="226.00" x="2828.86" y="1681.83"/>
    </timestep>
    <timestep time="2.30">
        <vehicle id="0" eclass="HBEFA3/PC_G_EU4" CO2="3931.13" CO="114.45" HC="0.61" NOx="1.69" PMx="0.08" fuel="1253.87" electricity="0.00" noise="63.99" route="!0!var#1" type="vTypeCar" waiting="0.00" lane="23623765#0_0" pos="10.85" speed="4.95" angle="208.49" x="2838.88" y="1760.89"/>
        <vehicle id="1" eclass="HBEFA3/PC_G_EU4" CO2="3863.60" CO="142.91" HC="0.74" NOx="1.71" PMx="0.08" fuel="1232.34" electricity="0.00" noise="66.14" route="!1!var#1" type="vTypeCar" waiting="0.00" lane="-59825146_0" pos="6.70" speed="2.88" angle="262.31" x="3163.20" y="1463.10"/>
        <vehicle id="2" eclass="HBEFA3/PC_G_EU4" CO2="3056.93" CO="160.14" HC="0.80" NOx="1.39" PMx="0.07" fuel="975.07" electricity="0.00" noise="67.67" route="!2!var#1" type="vTypeAutomatedCar" waiting="0.00" lane="244354946_0" pos="4.76" speed="0.78" angle="226.00" x="2828.81" y="1681.78"/>
    </timestep>
    <timestep time="2.40">
        <vehicle id="0" eclass="HBEFA3/PC_G_EU4" CO2="4651.89" CO="126.79" HC="0.69" NOx="2.02" PMx="0.09" fuel="1483.76" electricity="0.00" noise="66.21" route="!0!var#1" type="vTypeCar" waiting="0.00" lane="23623765#0_0" pos="11.36" speed="5.13" angle="208.49" x="2838.63" y="1760.44"/>
        <vehicle id="1" eclass="HBEFA3/PC_G_EU4" CO2="3687.72" CO="136.64" HC="0.71" NOx="1.62" PMx="0.08" fuel="1176.25" electricity="0.00" noise="64.81" route="!1!var#1" type="vTypeCar" waiting="0.00" lane="-59825146_0" pos="7.01" speed="3.05" angle="262.31" x="3162.89" y="1463.06"/>
        <vehicle id="2" eclass="HBEFA3/PC_G_EU4" CO2="3203.12" CO="158.75" HC="0.80" NOx="1.45" PMx="0.08" fuel="1021.69" electricity="0.00" noise="67.77" route="!2!var#1" type="vTypeAutomatedCar" waiting="0.00" lane="244354946_0" pos="4.86" speed="1.04" angle="226.00" x="2828.73" y="1681.70"/>
    </timestep>
</emission-export>
