<?xml version="1.0" encoding="utf-8"?>

<configuration xmlns:xsi="http://www.w3.org/2001/XMLSchema-instance" xsi:noNamespaceSchemaLocation="http://sumo.sf.net/xsd/sumoConfiguration.xsd">

    <input>
        <net-file value="halmstad.net.xml"/>
        <route-files value="flow.trips.xml"/>
        <additional-files value="map.poly.xml, vType.xml"/>
    </input>

    <time>
        <begin value="0"/>
        <end value="1500"/>
        <step-length value="0.1"/>
    </time>

    <output>
        <summary-output value="summary.xml"/>
        <stop-output value="stops.xml"/>
        <tripinfo-output value ="value.xml"/>
    </output>

    <gui_only>
        <start value="true"/>
    </gui_only>

    <processing>
        <collision.action value="none"/>
        <collision.stoptime value="3"/>
        <statistics-output value="statistics.xml"/>
    </processing>
 
</configuration>
